 VARIABLES = "x" "Te" 
 ZONE I = 1000, DATAPACKING=BLOCK 
1000000.000000 
1001.000000 
2001.000000 
997000.000000 
996000.000000 
5001.000000 
6001.000000 
993000.000000 
992000.000000 
9001.000000 
10001.000000 
989000.000000 
988000.000000 
13001.000000 
14001.000000 
985000.000000 
984000.000000 
17001.000000 
18001.000000 
981000.000000 
980000.000000 
21001.000000 
22001.000000 
977000.000000 
976000.000000 
25001.000000 
26001.000000 
973000.000000 
972000.000000 
29001.000000 
30001.000000 
969000.000000 
968000.000000 
33001.000000 
34001.000000 
965000.000000 
964000.000000 
37001.000000 
38001.000000 
961000.000000 
960000.000000 
41001.000000 
42001.000000 
957000.000000 
956000.000000 
45001.000000 
46001.000000 
953000.000000 
952000.000000 
49001.000000 
50001.000000 
949000.000000 
948000.000000 
53001.000000 
54001.000000 
945000.000000 
944000.000000 
57001.000000 
58001.000000 
941000.000000 
940000.000000 
61001.000000 
62001.000000 
937000.000000 
936000.000000 
65001.000000 
66001.000000 
933000.000000 
932000.000000 
69001.000000 
70001.000000 
929000.000000 
928000.000000 
73001.000000 
74001.000000 
925000.000000 
924000.000000 
77001.000000 
78001.000000 
921000.000000 
920000.000000 
81001.000000 
82001.000000 
917000.000000 
916000.000000 
85001.000000 
86001.000000 
913000.000000 
912000.000000 
89001.000000 
90001.000000 
909000.000000 
908000.000000 
93001.000000 
94001.000000 
905000.000000 
904000.000000 
97001.000000 
98001.000000 
901000.000000 
900000.000000 
101001.000000 
102001.000000 
897000.000000 
896000.000000 
105001.000000 
106001.000000 
893000.000000 
892000.000000 
109001.000000 
110001.000000 
889000.000000 
888000.000000 
113001.000000 
114001.000000 
885000.000000 
884000.000000 
117001.000000 
118001.000000 
881000.000000 
880000.000000 
121001.000000 
122001.000000 
877000.000000 
876000.000000 
125001.000000 
126001.000000 
873000.000000 
872000.000000 
129001.000000 
130001.000000 
869000.000000 
868000.000000 
133001.000000 
134001.000000 
865000.000000 
864000.000000 
137001.000000 
138001.000000 
861000.000000 
860000.000000 
141001.000000 
142001.000000 
857000.000000 
856000.000000 
145001.000000 
146001.000000 
853000.000000 
852000.000000 
149001.000000 
150001.000000 
849000.000000 
848000.000000 
153001.000000 
154001.000000 
845000.000000 
844000.000000 
157001.000000 
158001.000000 
841000.000000 
840000.000000 
161001.000000 
162001.000000 
837000.000000 
836000.000000 
165001.000000 
166001.000000 
833000.000000 
832000.000000 
169001.000000 
170001.000000 
829000.000000 
828000.000000 
173001.000000 
174001.000000 
825000.000000 
824000.000000 
177001.000000 
178001.000000 
821000.000000 
820000.000000 
181001.000000 
182001.000000 
817000.000000 
816000.000000 
185001.000000 
186001.000000 
813000.000000 
812000.000000 
189001.000000 
190001.000000 
809000.000000 
808000.000000 
193001.000000 
194001.000000 
805000.000000 
804000.000000 
197001.000000 
198001.000000 
801000.000000 
800000.000000 
201001.000000 
202001.000000 
797000.000000 
796000.000000 
205001.000000 
206001.000000 
793000.000000 
792000.000000 
209001.000000 
210001.000000 
789000.000000 
788000.000000 
213001.000000 
214001.000000 
785000.000000 
784000.000000 
217001.000000 
218001.000000 
781000.000000 
780000.000000 
221001.000000 
222001.000000 
777000.000000 
776000.000000 
225001.000000 
226001.000000 
773000.000000 
772000.000000 
229001.000000 
230001.000000 
769000.000000 
768000.000000 
233001.000000 
234001.000000 
765000.000000 
764000.000000 
237001.000000 
238001.000000 
761000.000000 
760000.000000 
241001.000000 
242001.000000 
757000.000000 
756000.000000 
245001.000000 
246001.000000 
753000.000000 
752000.000000 
249001.000000 
250001.000000 
749000.000000 
748000.000000 
253001.000000 
254001.000000 
745000.000000 
744000.000000 
257001.000000 
258001.000000 
741000.000000 
740000.000000 
261001.000000 
262001.000000 
737000.000000 
736000.000000 
265001.000000 
266001.000000 
733000.000000 
732000.000000 
269001.000000 
270001.000000 
729000.000000 
728000.000000 
273001.000000 
274001.000000 
725000.000000 
724000.000000 
277001.000000 
278001.000000 
721000.000000 
720000.000000 
281001.000000 
282001.000000 
717000.000000 
716000.000000 
285001.000000 
286001.000000 
713000.000000 
712000.000000 
289001.000000 
290001.000000 
709000.000000 
708000.000000 
293001.000000 
294001.000000 
705000.000000 
704000.000000 
297001.000000 
298001.000000 
701000.000000 
700000.000000 
301001.000000 
302001.000000 
697000.000000 
696000.000000 
305001.000000 
306001.000000 
693000.000000 
692000.000000 
309001.000000 
310001.000000 
689000.000000 
688000.000000 
313001.000000 
314001.000000 
685000.000000 
684000.000000 
317001.000000 
318001.000000 
681000.000000 
680000.000000 
321001.000000 
322001.000000 
677000.000000 
676000.000000 
325001.000000 
326001.000000 
673000.000000 
672000.000000 
329001.000000 
330001.000000 
669000.000000 
668000.000000 
333001.000000 
334001.000000 
665000.000000 
664000.000000 
337001.000000 
338001.000000 
661000.000000 
660000.000000 
341001.000000 
342001.000000 
657000.000000 
656000.000000 
345001.000000 
346001.000000 
653000.000000 
652000.000000 
349001.000000 
350001.000000 
649000.000000 
648000.000000 
353001.000000 
354001.000000 
645000.000000 
644000.000000 
357001.000000 
358001.000000 
641000.000000 
640000.000000 
361001.000000 
362001.000000 
637000.000000 
636000.000000 
365001.000000 
366001.000000 
633000.000000 
632000.000000 
369001.000000 
370001.000000 
629000.000000 
628000.000000 
373001.000000 
374001.000000 
625000.000000 
624000.000000 
377001.000000 
378001.000000 
621000.000000 
620000.000000 
381001.000000 
382001.000000 
617000.000000 
616000.000000 
385001.000000 
386001.000000 
613000.000000 
612000.000000 
389001.000000 
390001.000000 
609000.000000 
608000.000000 
393001.000000 
394001.000000 
605000.000000 
604000.000000 
397001.000000 
398001.000000 
601000.000000 
600000.000000 
401001.000000 
402001.000000 
597000.000000 
596000.000000 
405001.000000 
406001.000000 
593000.000000 
592000.000000 
409001.000000 
410001.000000 
589000.000000 
588000.000000 
413001.000000 
414001.000000 
585000.000000 
584000.000000 
417001.000000 
418001.000000 
581000.000000 
580000.000000 
421001.000000 
422001.000000 
577000.000000 
576000.000000 
425001.000000 
426001.000000 
573000.000000 
572000.000000 
429001.000000 
430001.000000 
569000.000000 
568000.000000 
433001.000000 
434001.000000 
565000.000000 
564000.000000 
437001.000000 
438001.000000 
561000.000000 
560000.000000 
441001.000000 
442001.000000 
557000.000000 
556000.000000 
445001.000000 
446001.000000 
553000.000000 
552000.000000 
449001.000000 
450001.000000 
549000.000000 
548000.000000 
453001.000000 
454001.000000 
545000.000000 
544000.000000 
457001.000000 
458001.000000 
541000.000000 
540000.000000 
461001.000000 
462001.000000 
537000.000000 
536000.000000 
465001.000000 
466001.000000 
533000.000000 
532000.000000 
469001.000000 
470001.000000 
529000.000000 
528000.000000 
473001.000000 
474001.000000 
525000.000000 
524000.000000 
477001.000000 
478001.000000 
521000.000000 
520000.000000 
481001.000000 
482001.000000 
517000.000000 
516000.000000 
485001.000000 
486001.000000 
513000.000000 
512000.000000 
489001.000000 
490001.000000 
509000.000000 
508000.000000 
493001.000000 
494001.000000 
505000.000000 
504000.000000 
497001.000000 
498001.000000 
501000.000000 
500000.000000 
501001.000000 
502001.000000 
497000.000000 
496000.000000 
505001.000000 
506001.000000 
493000.000000 
492000.000000 
509001.000000 
510001.000000 
489000.000000 
488000.000000 
513001.000000 
514001.000000 
485000.000000 
484000.000000 
517001.000000 
518001.000000 
481000.000000 
480000.000000 
521001.000000 
522001.000000 
477000.000000 
476000.000000 
525001.000000 
526001.000000 
473000.000000 
472000.000000 
529001.000000 
530001.000000 
469000.000000 
468000.000000 
533001.000000 
534001.000000 
465000.000000 
464000.000000 
537001.000000 
538001.000000 
461000.000000 
460000.000000 
541001.000000 
542001.000000 
457000.000000 
456000.000000 
545001.000000 
546001.000000 
453000.000000 
452000.000000 
549001.000000 
550001.000000 
449000.000000 
448000.000000 
553001.000000 
554001.000000 
445000.000000 
444000.000000 
557001.000000 
558001.000000 
441000.000000 
440000.000000 
561001.000000 
562001.000000 
437000.000000 
436000.000000 
565001.000000 
566001.000000 
433000.000000 
432000.000000 
569001.000000 
570001.000000 
429000.000000 
428000.000000 
573001.000000 
574001.000000 
425000.000000 
424000.000000 
577001.000000 
578001.000000 
421000.000000 
420000.000000 
581001.000000 
582001.000000 
417000.000000 
416000.000000 
585001.000000 
586001.000000 
413000.000000 
412000.000000 
589001.000000 
590001.000000 
409000.000000 
408000.000000 
593001.000000 
594001.000000 
405000.000000 
404000.000000 
597001.000000 
598001.000000 
401000.000000 
400000.000000 
601001.000000 
602001.000000 
397000.000000 
396000.000000 
605001.000000 
606001.000000 
393000.000000 
392000.000000 
609001.000000 
610001.000000 
389000.000000 
388000.000000 
613001.000000 
614001.000000 
385000.000000 
384000.000000 
617001.000000 
618001.000000 
381000.000000 
380000.000000 
621001.000000 
622001.000000 
377000.000000 
376000.000000 
625001.000000 
626001.000000 
373000.000000 
372000.000000 
629001.000000 
630001.000000 
369000.000000 
368000.000000 
633001.000000 
634001.000000 
365000.000000 
364000.000000 
637001.000000 
638001.000000 
361000.000000 
360000.000000 
641001.000000 
642001.000000 
357000.000000 
356000.000000 
645001.000000 
646001.000000 
353000.000000 
352000.000000 
649001.000000 
650001.000000 
349000.000000 
348000.000000 
653001.000000 
654001.000000 
345000.000000 
344000.000000 
657001.000000 
658001.000000 
341000.000000 
340000.000000 
661001.000000 
662001.000000 
337000.000000 
336000.000000 
665001.000000 
666001.000000 
333000.000000 
332000.000000 
669001.000000 
670001.000000 
329000.000000 
328000.000000 
673001.000000 
674001.000000 
325000.000000 
324000.000000 
677001.000000 
678001.000000 
321000.000000 
320000.000000 
681001.000000 
682001.000000 
317000.000000 
316000.000000 
685001.000000 
686001.000000 
313000.000000 
312000.000000 
689001.000000 
690001.000000 
309000.000000 
308000.000000 
693001.000000 
694001.000000 
305000.000000 
304000.000000 
697001.000000 
698001.000000 
301000.000000 
300000.000000 
701001.000000 
702001.000000 
297000.000000 
296000.000000 
705001.000000 
706001.000000 
293000.000000 
292000.000000 
709001.000000 
710001.000000 
289000.000000 
288000.000000 
713001.000000 
714001.000000 
285000.000000 
284000.000000 
717001.000000 
718001.000000 
281000.000000 
280000.000000 
721001.000000 
722001.000000 
277000.000000 
276000.000000 
725001.000000 
726001.000000 
273000.000000 
272000.000000 
729001.000000 
730001.000000 
269000.000000 
268000.000000 
733001.000000 
734001.000000 
265000.000000 
264000.000000 
737001.000000 
738001.000000 
261000.000000 
260000.000000 
741001.000000 
742001.000000 
257000.000000 
256000.000000 
745001.000000 
746001.000000 
253000.000000 
252000.000000 
749001.000000 
750001.000000 
249000.000000 
248000.000000 
753001.000000 
754001.000000 
245000.000000 
244000.000000 
757001.000000 
758001.000000 
241000.000000 
240000.000000 
761001.000000 
762001.000000 
237000.000000 
236000.000000 
765001.000000 
766001.000000 
233000.000000 
232000.000000 
769001.000000 
770001.000000 
229000.000000 
228000.000000 
773001.000000 
774001.000000 
225000.000000 
224000.000000 
777001.000000 
778001.000000 
221000.000000 
220000.000000 
781001.000000 
782001.000000 
217000.000000 
216000.000000 
785001.000000 
786001.000000 
213000.000000 
212000.000000 
789001.000000 
790001.000000 
209000.000000 
208000.000000 
793001.000000 
794001.000000 
205000.000000 
204000.000000 
797001.000000 
798001.000000 
201000.000000 
200000.000000 
801001.000000 
802001.000000 
197000.000000 
196000.000000 
805001.000000 
806001.000000 
193000.000000 
192000.000000 
809001.000000 
810001.000000 
189000.000000 
188000.000000 
813001.000000 
814001.000000 
185000.000000 
184000.000000 
817001.000000 
818001.000000 
181000.000000 
180000.000000 
821001.000000 
822001.000000 
177000.000000 
176000.000000 
825001.000000 
826001.000000 
173000.000000 
172000.000000 
829001.000000 
830001.000000 
169000.000000 
168000.000000 
833001.000000 
834001.000000 
165000.000000 
164000.000000 
837001.000000 
838001.000000 
161000.000000 
160000.000000 
841001.000000 
842001.000000 
157000.000000 
156000.000000 
845001.000000 
846001.000000 
153000.000000 
152000.000000 
849001.000000 
850001.000000 
149000.000000 
148000.000000 
853001.000000 
854001.000000 
145000.000000 
144000.000000 
857001.000000 
858001.000000 
141000.000000 
140000.000000 
861001.000000 
862001.000000 
137000.000000 
136000.000000 
865001.000000 
866001.000000 
133000.000000 
132000.000000 
869001.000000 
870001.000000 
129000.000000 
128000.000000 
873001.000000 
874001.000000 
125000.000000 
124000.000000 
877001.000000 
878001.000000 
121000.000000 
120000.000000 
881001.000000 
882001.000000 
117000.000000 
116000.000000 
885001.000000 
886001.000000 
113000.000000 
112000.000000 
889001.000000 
890001.000000 
109000.000000 
108000.000000 
893001.000000 
894001.000000 
105000.000000 
104000.000000 
897001.000000 
898001.000000 
101000.000000 
100000.000000 
901001.000000 
902001.000000 
97000.000000 
96000.000000 
905001.000000 
906001.000000 
93000.000000 
92000.000000 
909001.000000 
910001.000000 
89000.000000 
88000.000000 
913001.000000 
914001.000000 
85000.000000 
84000.000000 
917001.000000 
918001.000000 
81000.000000 
80000.000000 
921001.000000 
922001.000000 
77000.000000 
76000.000000 
925001.000000 
926001.000000 
73000.000000 
72000.000000 
929001.000000 
930001.000000 
69000.000000 
68000.000000 
933001.000000 
934001.000000 
65000.000000 
64000.000000 
937001.000000 
938001.000000 
61000.000000 
60000.000000 
941001.000000 
942001.000000 
57000.000000 
56000.000000 
945001.000000 
946001.000000 
53000.000000 
52000.000000 
949001.000000 
950001.000000 
49000.000000 
48000.000000 
953001.000000 
954001.000000 
45000.000000 
44000.000000 
957001.000000 
958001.000000 
41000.000000 
40000.000000 
961001.000000 
962001.000000 
37000.000000 
36000.000000 
965001.000000 
966001.000000 
33000.000000 
32000.000000 
969001.000000 
970001.000000 
29000.000000 
28000.000000 
973001.000000 
974001.000000 
25000.000000 
24000.000000 
977001.000000 
978001.000000 
21000.000000 
20000.000000 
981001.000000 
982001.000000 
17000.000000 
16000.000000 
985001.000000 
986001.000000 
13000.000000 
12000.000000 
989001.000000 
990001.000000 
9000.000000 
8000.000000 
993001.000000 
994001.000000 
5000.000000 
4000.000000 
997001.000000 
998001.000000 
1000.000000 
0.100000 
0.100000 
0.100000 
0.100000 
0.100000 
0.100000 
0.100000 
0.100000 
0.100000 
0.100000 
0.100000 
0.100000 
0.100000 
0.100000 
0.100000 
0.100000 
0.100000 
0.100000 
0.100000 
0.100000 
0.100000 
0.100000 
0.100000 
0.100000 
0.100000 
0.100000 
0.100000 
0.100000 
0.100000 
0.100000 
0.100000 
0.100000 
0.100000 
0.100000 
0.100000 
0.100000 
0.100000 
0.100000 
0.100000 
0.100000 
0.100000 
0.100000 
0.100000 
0.100000 
0.100000 
0.100000 
0.100000 
0.100000 
0.100000 
0.100000 
0.100000 
0.100000 
0.100000 
0.100000 
0.100000 
0.100000 
0.100000 
0.100000 
0.100000 
0.100000 
0.100000 
0.100000 
0.100000 
0.100000 
0.100000 
0.100000 
0.100000 
0.100000 
0.100000 
0.100000 
0.100000 
0.100000 
0.100000 
0.100000 
0.100000 
0.100000 
0.100000 
0.100000 
0.100000 
0.100000 
0.100000 
0.100000 
0.100000 
0.100000 
0.100000 
0.100000 
0.100000 
0.100000 
0.100000 
0.100000 
0.100000 
0.100000 
0.100000 
0.100000 
0.100000 
0.100000 
0.100000 
0.100000 
0.100000 
0.100000 
0.100000 
0.100000 
0.100000 
0.100000 
0.100000 
0.100000 
0.100000 
0.100000 
0.100000 
0.100000 
0.100000 
0.100000 
0.100000 
0.100000 
0.100000 
0.100000 
0.100000 
0.100000 
0.100000 
0.100000 
0.100000 
0.100000 
0.100000 
0.100000 
0.100000 
0.100000 
0.100000 
0.100000 
0.100000 
0.100000 
0.100000 
0.100000 
0.100000 
0.100000 
0.100000 
0.100000 
0.100000 
0.100000 
0.100000 
0.100000 
0.100000 
0.100000 
0.100000 
0.100000 
0.100000 
0.100000 
0.100000 
0.100000 
0.100000 
0.100000 
0.100000 
0.100000 
0.100000 
0.100000 
0.100000 
0.100000 
0.100000 
0.100000 
0.100000 
0.100000 
0.100000 
0.100000 
0.100000 
0.100000 
0.100000 
0.100000 
0.100000 
0.100000 
0.100000 
0.100000 
0.100000 
0.100000 
0.100000 
0.100000 
0.100000 
0.100000 
0.100000 
0.100000 
0.100000 
0.100000 
0.100000 
0.100000 
0.100000 
0.100000 
0.100000 
0.100000 
0.100000 
0.100000 
0.100000 
0.100000 
0.100000 
0.100000 
0.100000 
0.100000 
0.100000 
0.100000 
0.100000 
0.100000 
0.100000 
0.100000 
0.100000 
0.100000 
0.100000 
0.100000 
0.100000 
0.100000 
0.100000 
0.100000 
0.100000 
0.100000 
0.100000 
0.100000 
0.100000 
0.100000 
0.100000 
0.100000 
0.100000 
0.100000 
0.100000 
0.100000 
0.100000 
0.100000 
0.100000 
0.100000 
0.100000 
0.100000 
0.100000 
0.100000 
0.100000 
0.100000 
0.100000 
0.100000 
0.100000 
0.100000 
0.100000 
0.100000 
0.100000 
0.100000 
0.100000 
0.100000 
0.100000 
0.100000 
0.100000 
0.100000 
0.100000 
0.100000 
0.100000 
0.100000 
0.100000 
0.100000 
0.100000 
0.100000 
0.100000 
0.100000 
0.100000 
0.100000 
0.100000 
0.100000 
0.100000 
0.100000 
0.100000 
0.100000 
0.100000 
0.100000 
0.100000 
0.100000 
0.100000 
0.100000 
0.100000 
0.100000 
0.100000 
0.100000 
0.100000 
0.100000 
0.100000 
0.100000 
0.100000 
0.100000 
0.100000 
0.100000 
0.100000 
0.100000 
0.100000 
0.100000 
0.100000 
0.100000 
0.100000 
0.100000 
0.100000 
0.100000 
0.100000 
0.100000 
0.100000 
0.100000 
0.100000 
0.100000 
0.100000 
0.100000 
0.100000 
0.100000 
0.100000 
0.100000 
0.100000 
0.100000 
0.100000 
0.100000 
0.100000 
0.100000 
0.100000 
0.100000 
0.100000 
0.100000 
0.100000 
0.100000 
0.100000 
0.100000 
0.100000 
0.100000 
0.100000 
0.100000 
0.100000 
0.100000 
0.100000 
0.100000 
0.100000 
0.100000 
0.100000 
0.100000 
0.100000 
0.100000 
0.100000 
0.100000 
0.100000 
0.100000 
0.100000 
0.100000 
0.100000 
0.100000 
0.100000 
0.100000 
0.100000 
0.100000 
0.100000 
0.100000 
0.100000 
0.100000 
0.100000 
0.100000 
0.100000 
0.100000 
0.100000 
0.100000 
0.100000 
0.100000 
0.100000 
0.100000 
0.100000 
0.100000 
0.100000 
0.100000 
0.100000 
0.100000 
0.100000 
0.100000 
0.100000 
0.100000 
0.100000 
0.100000 
0.100000 
0.100000 
0.100000 
0.100000 
0.100000 
0.100000 
0.100000 
0.100000 
0.100000 
0.100000 
0.100000 
0.100000 
0.100000 
0.100000 
0.100000 
0.100000 
0.100000 
0.100000 
0.100000 
0.100000 
0.100000 
0.100000 
0.100000 
0.100000 
0.100000 
0.100000 
0.100000 
0.100000 
0.100000 
0.100000 
0.100000 
0.100000 
0.100000 
0.100000 
0.100000 
0.100000 
0.100000 
0.100000 
0.100000 
0.100000 
0.100000 
0.100000 
0.100000 
0.100000 
0.100000 
0.100000 
0.100000 
0.100000 
0.100000 
0.100000 
0.100000 
0.100000 
0.100000 
0.100000 
0.100000 
0.100000 
0.100000 
0.100000 
0.100000 
0.100000 
0.100000 
0.100000 
0.100000 
0.100000 
0.100000 
0.100000 
0.100000 
0.100000 
0.100000 
0.100000 
0.100000 
0.100000 
0.100000 
0.100000 
0.100000 
0.100000 
0.100000 
0.100000 
0.100000 
0.100000 
0.100000 
0.100000 
0.100000 
0.100000 
0.100000 
0.100000 
0.100000 
0.100000 
0.100000 
0.100000 
0.100000 
0.100000 
0.100000 
0.100000 
0.100000 
0.100000 
0.100000 
0.100000 
0.100000 
0.100000 
0.100000 
0.100000 
0.100000 
0.100000 
0.100000 
0.100000 
0.100000 
0.100000 
0.100000 
0.100000 
0.100000 
0.100000 
0.100000 
0.100000 
0.100000 
0.100000 
0.100000 
0.100000 
0.100000 
0.100000 
0.100000 
0.100000 
0.100000 
0.100000 
0.100000 
0.100000 
0.100000 
0.100000 
0.100000 
0.100000 
0.100000 
0.100000 
0.100000 
0.100000 
0.100000 
0.100000 
0.100000 
0.100000 
0.100000 
0.100000 
0.100000 
0.100000 
0.100000 
0.100000 
0.100000 
0.100000 
0.100000 
0.100000 
0.100000 
0.100000 
0.100000 
0.100000 
0.100000 
0.100000 
0.100000 
0.100000 
0.100000 
0.100000 
0.100000 
0.100000 
0.100000 
0.100000 
0.100000 
0.100000 
0.100000 
0.100000 
0.100000 
0.100000 
0.100000 
0.100000 
0.100000 
0.100000 
0.100000 
0.100000 
0.100000 
0.100000 
0.100000 
0.100000 
0.100000 
0.100000 
0.100000 
0.100000 
0.100000 
0.100000 
0.100000 
0.100000 
0.100000 
0.100000 
0.100000 
0.100000 
0.100000 
0.100000 
0.100000 
0.100000 
0.100000 
0.100000 
0.100000 
0.100000 
0.100000 
0.100000 
0.100000 
0.100000 
0.100000 
0.100000 
0.100000 
0.100000 
0.100000 
0.100000 
0.100000 
0.100000 
0.100000 
0.100000 
0.100000 
0.100000 
0.100000 
0.100000 
0.100000 
0.100000 
0.100000 
0.100000 
0.100000 
0.100000 
0.100000 
0.100000 
0.100000 
0.100000 
0.100000 
0.100000 
0.100000 
0.100000 
0.100000 
0.100000 
0.100000 
0.100000 
0.100000 
0.100000 
0.100000 
0.100000 
0.100000 
0.100000 
0.100000 
0.100000 
0.100000 
0.100000 
0.100000 
0.100000 
0.100000 
0.100000 
0.100000 
0.100000 
0.100000 
0.100000 
0.100000 
0.100000 
0.100000 
0.100000 
0.100000 
0.100000 
0.100000 
0.100000 
0.100000 
0.100000 
0.100000 
0.100000 
0.100000 
0.100000 
0.100000 
0.100000 
0.100000 
0.100000 
0.100000 
0.100000 
0.100000 
0.100000 
0.100000 
0.100000 
0.100000 
0.100000 
0.100000 
0.100000 
0.100000 
0.100000 
0.100000 
0.100000 
0.100000 
0.100000 
0.100000 
0.100000 
0.100000 
0.100000 
0.100000 
0.100000 
0.100000 
0.100000 
0.100000 
0.100000 
0.100000 
0.100000 
0.100000 
0.100000 
0.100000 
0.100000 
0.100000 
0.100000 
0.100000 
0.100000 
0.100000 
0.100000 
0.100000 
0.100000 
0.100000 
0.100000 
0.100000 
0.100000 
0.100000 
0.100000 
0.100000 
0.100000 
0.100000 
0.100000 
0.100000 
0.100000 
0.100000 
0.100000 
0.100000 
0.100000 
0.100000 
0.100000 
0.100000 
0.100000 
0.100000 
0.100000 
0.100000 
0.100000 
0.100000 
0.100000 
0.100000 
0.100000 
0.100000 
0.100000 
0.100000 
0.100000 
0.100000 
0.100000 
0.100000 
0.100000 
0.100000 
0.100000 
0.100000 
0.100000 
0.100000 
0.100000 
0.100000 
0.100000 
0.100000 
0.100000 
0.100000 
0.100000 
0.100000 
0.100000 
0.100000 
0.100000 
0.100000 
0.100000 
0.100000 
0.100000 
0.100000 
0.100000 
0.100000 
0.100000 
0.100000 
0.100000 
0.100000 
0.100000 
0.100000 
0.100000 
0.100000 
0.100000 
0.100000 
0.100000 
0.100000 
0.100000 
0.100000 
0.100000 
0.100000 
0.100000 
0.100000 
0.100000 
0.100000 
0.100000 
0.100000 
0.100000 
0.100000 
0.100000 
0.100000 
0.100000 
0.100000 
0.100000 
0.100000 
0.100000 
0.100000 
0.100000 
0.100000 
0.100000 
0.100000 
0.100000 
0.100000 
0.100000 
0.100000 
0.100000 
0.100000 
0.100000 
0.100000 
0.100000 
0.100000 
0.100000 
0.100000 
0.100000 
0.100000 
0.100000 
0.100000 
0.100000 
0.100000 
0.100000 
0.100000 
0.100000 
0.100000 
0.100000 
0.100000 
0.100000 
0.100000 
0.100000 
0.100000 
0.100000 
0.100000 
0.100000 
0.100000 
0.100000 
0.100000 
0.100000 
0.100000 
0.100000 
0.100000 
0.100000 
0.100000 
0.100000 
0.100000 
0.100000 
0.100000 
0.100000 
0.100000 
0.100000 
0.100000 
0.100000 
0.100000 
0.100000 
0.100000 
0.100000 
0.100000 
0.100000 
0.100000 
0.100000 
0.100000 
0.100000 
0.100000 
0.100000 
0.100000 
0.100000 
0.100000 
0.100000 
0.100000 
0.100000 
0.100000 
0.100000 
0.100000 
0.100000 
0.100000 
0.100000 
0.100000 
0.100000 
0.100000 
0.100000 
0.100000 
0.100000 
0.100000 
0.100000 
0.100000 
0.100000 
0.100000 
0.100000 
0.100000 
0.100000 
0.100000 
0.100000 
0.100000 
0.100000 
0.100000 
0.100000 
0.100000 
0.100000 
0.100000 
0.100000 
0.100000 
0.100000 
0.100000 
0.100000 
0.100000 
0.100000 
0.100000 
0.100000 
0.100000 
0.100000 
0.100000 
0.100000 
0.100000 
0.100000 
0.100000 
0.100000 
0.100000 
0.100000 
0.100000 
0.100000 
0.100000 
0.100000 
0.100000 
0.100000 
0.100000 
0.100000 
0.100000 
0.100000 
0.100000 
0.100000 
0.100000 
0.100000 
0.100000 
0.100000 
0.100000 
0.100000 
0.100000 
0.100000 
0.100000 
0.100000 
0.100000 
0.100000 
0.100000 
0.100000 
0.100000 
0.100000 
0.100000 
0.100000 
0.100000 
0.100000 
0.100000 
0.100000 
0.100000 
0.100000 
0.100000 
0.100000 
0.100000 
0.100000 
0.100000 
0.100000 
0.100000 
0.100000 
0.100000 
0.100000 
0.100000 
0.100000 
0.100000 
0.100000 
0.100000 
0.100000 
0.100000 
0.100000 
0.100000 
0.100000 
0.100000 
0.100000 
0.100000 
0.100000 
0.100000 
0.100000 
0.100000 
0.100000 
0.100000 
0.100000 
0.100000 
0.100000 
0.100000 
0.100000 
0.100000 
0.100000 
0.100000 
0.100000 
0.100000 
0.100000 
0.100000 
0.100000 
0.100000 
0.100000 
0.100000 
0.100000 
0.100000 
0.100000 
0.100000 
0.100000 
0.100000 
0.100000 
0.100000 
0.100000 
0.100000 
0.100000 
0.100000 
0.100000 
0.100000 
0.100000 
0.100000 
0.100000 
0.100000 
0.100000 
0.100000 
0.100000 
0.100000 
0.100000 
0.100000 
0.100000 
0.100000 
0.100000 
0.100000 
0.100000 
0.100000 
0.100000 
